Single water molecule for testing solvation.

3 atoms
2 bonds
1 angles

2 atom types
1 bond types
1 angle types

0.0 3.1 xlo xhi
0.0 3.1 ylo yhi
0.0 3.1 zlo zhi

Atoms

1 1 1 -0.830 1.55000 1.55000 1.50000
2 1 2  0.415 1.55000 2.30695 2.08588
3 1 2  0.415 1.55000 0.79305 2.08588

Masses

1 15.9994 # O
2 1.00794 # H

Pair Coeffs

1 1 0.16275 3.16435
2 2 0.00000 0.00000

Bonds

1 1 1 2
2 1 1 3

Bond Coeffs

1 0.0 0.9572

Angles

1 1 2 1 3

Angle Coeffs

1 0.0 104.52 
